ITEM: TIMESTEP
90000
ITEM: NUMBER OF SURFS
271
ITEM: BOX BOUNDS oo oo pp
-0.018 0.094
-0.013 0.04
-0.5 0.5
ITEM: SURFS id f_2[1] f_2[2] f_2[3] f_2[4] f_2[5] f_2[6] f_2[7] v1x v1y v2x v2y 
1 13.723 24.5052 0 -24.5052 83.1837 0 302962 0 0 0.0005644 0 
241 38.358 124.622 0 -124.622 66.703 0 270298 0.08215 0 0.08255 0 
2 18.055 36.832 0 -36.832 98.7829 0 357651 0.0005644 0 0.0011287 0 
242 38.237 124.075 0 -124.075 66.8633 0 269521 0.08255 0 0.08295 0 
3 21.58 47.215 0 -47.215 110.803 0 399257 0.0011287 0 0.0016931 0 
243 38.533 124.699 0 -124.699 67.8947 0 271585 0.08295 0 0.08335 0 
4 24.576 55.7642 0 -55.7642 121.666 0 437381 0.0016931 0 0.0022575 0 
244 38.405 123.878 0 -123.878 67.2539 0 269467 0.08335 0 0.08375 0 
5 26.737 61.9772 0 -61.9772 127.687 0 459067 0.0022575 0 0.0028219 0 
245 38.257 124.085 0 -124.085 67.2182 0 270753 0.08375 0 0.08415 0 
6 28.944 68.3182 0 -68.3182 134.502 -2.15711e-14 483380 0.0028219 0 0.0033862 0 
246 38.353 123.08 0 -123.08 65.9253 0 264038 0.08415 0 0.08455 0 
7 30.828 73.5545 0 -73.5545 139.937 0 502041 0.0033862 0 0.0039506 0 
247 38.291 123.831 0 -123.831 67.878 0 270169 0.08455 0 0.08495 0 
8 32.102 77.752 0 -77.752 143.284 0 514478 0.0039506 0 0.004515 0 
248 37.701 121.909 0 -121.909 66.5412 0 266757 0.08495 0 0.08535 0 
9 33.682 82.2959 0 -82.2959 145.406 0 522069 0.004515 0 0.0050794 0 
249 37.907 121.437 0 -121.437 65.4097 0 259903 0.08535 0 0.08575 0 
10 34.269 84.2177 0 -84.2177 145.493 -2.66183e-14 522444 0.0050794 0 0.0056437 0 
250 37.888 122.095 0 -122.095 65.5292 0 262315 0.08575 0 0.08615 0 
11 35.571 87.7728 0 -87.7728 149.24 0 534570 0.0056437 0 0.0062081 0 
251 38.221 123.09 0 -123.09 67.2163 0 267540 0.08615 0 0.08655 0 
12 36.475 90.4027 0 -90.4027 148.883 0 534787 0.0062081 0 0.0067725 0 
252 37.849 122.33 0 -122.33 66.3364 0 263652 0.08655 0 0.08695 0 
13 37.063 92.3528 0 -92.3528 150.033 0 538826 0.0067725 0 0.0073369 0 
253 37.713 121.253 0 -121.253 65.883 0 261615 0.08695 0 0.08735 0 
14 37.867 94.1916 0 -94.1916 151.147 0 542807 0.0073369 0 0.0079013 0 
254 37.718 121.733 0 -121.733 66.1382 0 262133 0.08735 0 0.08775 0 
15 37.938 95.0699 0 -95.0699 149.49 -3.01513e-14 536703 0.0079013 0 0.0084656 0 
255 37.75 120.953 0 -120.953 66.1418 0 257913 0.08775 0 0.08815 0 
16 38.69 97.0449 0 -97.0449 148.656 0 533698 0.0084656 0 0.00903 0 
256 37.059 119.811 0 -119.811 66.7118 0 259936 0.08815 0 0.08855 0 
17 39.368 98.5219 0 -98.5219 148.905 0 533857 0.00903 0 0.0095944 0 
257 37.098 119.525 0 -119.525 65.9365 0 258926 0.08855 0 0.08895 0 
18 39.604 99.284 0 -99.284 147.1 0 529447 0.0095944 0 0.0101588 0 
258 37.305 119.873 0 -119.873 66.6568 0 258504 0.08895 0 0.08935 0 
19 39.775 100.41 0 -100.41 146.676 -3.18417e-14 527202 0.0101588 0 0.0107231 0 
259 36.515 117.24 0 -117.24 66.2807 0 253466 0.08935 0 0.08975 0 
20 40.058 100.723 0 -100.723 145.538 0 523917 0.0107231 0 0.0112875 0 
260 36.542 117.853 0 -117.853 67.0001 0 257559 0.08975 0 0.09015 0 
21 40.19 101.677 0 -101.677 144.448 0 518432 0.0112875 0 0.0118519 0 
261 35.589 114.499 0 -114.499 64.8391 0 249628 0.09015 0 0.09055 0 
22 40.538 102.169 0 -102.169 143.926 0 516786 0.0118519 0 0.0124163 0 
262 35.334 113.847 0 -113.847 66.2345 0 250924 0.09055 0 0.09095 0 
23 40.648 102.645 0 -102.645 143.663 -3.26252e-14 516293 0.0124163 0 0.0129806 0 
263 35.185 113.796 0 -113.796 66.615 0 250130 0.09095 0 0.09135 0 
24 41.087 103.458 0 -103.458 142.155 0 511793 0.0129806 0 0.013545 0 
264 34.556 111.707 0 -111.707 65.5964 0 246948 0.09135 0 0.09175 0 
25 40.972 103.466 0 -103.466 139.788 0 503660 0.013545 0 0.0141094 0 
265 34.071 110.529 0 -110.529 67.9699 0 249946 0.09175 0 0.09215 0 
26 41.492 104.517 0 -104.517 140.628 0 505214 0.0141094 0 0.0146738 0 
266 33.306 108.414 0 -108.414 68.2947 0 247300 0.09215 0 0.09255 0 
27 41.612 104.949 0 -104.949 138.973 -3.33585e-14 501326 0.0146738 0 0.0152381 0 
267 31.771 104.531 0 -104.531 68.3432 0 243904 0.09255 0 0.09295 0 
28 41.605 104.95 0 -104.95 137.788 0 497016 0.0152381 0 0.0158025 0 
268 30.553 101.027 0 -101.027 69.4302 0 242724 0.09295 0 0.09335 0 
29 41.85 105.782 0 -105.782 137.12 0 493313 0.0158025 0 0.0163669 0 
269 28.091 94.3504 0 -94.3504 69.3271 0 234688 0.09335 0 0.09375 0 
30 41.629 104.997 0 -104.997 135.429 -3.34034e-14 487863 0.0163669 0 0.0169312 0 
270 15.98 87.8103 0 -87.8103 71.1004 0 230421 0.09375 0 0.094 0 
31 42.027 106.073 0 -106.073 134.705 0 485969 0.0169312 0 0.0174956 0 
271 12982.8 183.45 15.9887 182.752 151.238 -13.2316 553712 0.094 -0.00822394 0 0 
32 42.256 106.628 0 -106.628 134.522 0 484162 0.0174956 0 0.01806 0 
33 42.065 106.451 0 -106.451 133.043 0 477373 0.01806 0 0.0186244 0 
34 41.993 105.481 0 -105.481 131.147 0 472088 0.0186244 0 0.0191888 0 
35 42.436 107.321 0 -107.321 131.613 -3.41876e-14 475437 0.0191888 0 0.0197531 0 
36 42.028 105.298 0 -105.298 128.81 0 465999 0.0197531 0 0.0203175 0 
37 42.306 106.568 0 -106.568 129.633 0 467302 0.0203175 0 0.0208819 0 
38 42.467 107.141 0 -107.141 128.473 0 463944 0.0208819 0 0.0214463 0 
39 42.342 106.375 0 -106.375 126.459 -3.38877e-14 456105 0.0214463 0 0.0220106 0 
40 42.576 106.917 0 -106.917 126.753 0 456342 0.0220106 0 0.022575 0 
41 42.444 107.021 0 -107.021 124.999 0 452079 0.022575 0 0.0231394 0 
42 42.551 106.909 0 -106.909 123.984 -3.40413e-14 449270 0.0231394 0 0.0237037 0 
43 42.496 106.997 0 -106.997 122.842 0 444026 0.0237037 0 0.0242681 0 
44 42.631 107.022 0 -107.022 121.696 0 439701 0.0242681 0 0.0248325 0 
45 42.801 107.38 0 -107.38 122.199 0 441553 0.0248325 0 0.0253969 0 
46 42.388 106.193 0 -106.193 118.807 -3.38433e-14 430230 0.0253969 0 0.0259612 0 
47 42.754 106.864 0 -106.864 119.955 0 434570 0.0259612 0 0.0265256 0 
48 42.781 106.895 0 -106.895 118.713 0 430131 0.0265256 0 0.02709 0 
49 43.384 108.444 0 -108.444 119.089 0 431879 0.02709 0 0.0276544 0 
50 43.32 108.496 0 -108.496 117.304 0 427626 0.0276544 0 0.0282188 0 
51 43.593 109.257 0 -109.257 116.217 -3.48158e-14 425087 0.0282188 0 0.0287831 0 
52 44.079 110.318 0 -110.318 115.303 0 425487 0.0287831 0 0.0293475 0 
53 44.522 111.209 0 -111.209 113.728 0 422634 0.0293475 0 0.0299119 0 
54 45.725 113.973 0 -113.973 112.585 0 422880 0.0299119 0 0.0304762 0 
55 47.127 117.896 0 -117.896 112.979 0 430748 0.0304762 0 0.0310406 0 
56 48.964 122.244 0 -122.244 111.277 0 435377 0.0310406 0 0.031605 0 
57 51.847 129.203 0 -129.203 109.429 0 440362 0.031605 0 0.0321694 0 
58 55.3 137.506 0 -137.506 106.974 0 450031 0.0321694 0 0.0327337 0 
59 60.24 149.314 0 -149.314 104.007 0 464693 0.0327337 0 0.0332981 0 
60 67.607 166.434 0 -166.434 100.564 0 485216 0.0332981 0 0.0338625 0 
61 78.136 190.481 0 -190.481 95.4612 0 512885 0.0338625 0 0.0344269 0 
62 92.151 221.891 0 -221.891 89.5189 0 550197 0.0344269 0 0.0349913 0 
63 111.127 263.337 0 -263.337 82.7296 0 596761 0.0349913 0 0.0355556 0 
64 136.452 314.464 0 -314.464 70.3357 0 643196 0.0355556 0 0.03612 0 
65 168.004 376.844 0 -376.844 57.3249 0 690079 0.03612 0 0.0366844 0 
66 208.04 450.157 0 -450.157 40.8816 0 730329 0.0366844 0 0.0372488 0 
67 254.236 528.623 0 -528.623 24.1964 0 753498 0.0372488 0 0.0378131 0 
68 307.848 616.322 0 -616.322 8.14559 0 765276 0.0378131 0 0.0383775 0 
69 363.876 699.842 0 -699.842 -5.52125 0 756343 0.0383775 0 0.0389419 0 
70 423.246 784.381 0 -784.381 -18.9103 0 730032 0.0389419 0 0.0395062 0 
71 482.113 861.486 0 -861.486 -26.8072 0 689056 0.0395062 0 0.0400706 0 
72 537.628 930.681 0 -930.681 -36.9271 0 644864 0.0400706 0 0.040635 0 
73 587.573 991.91 0 -991.91 -42.7391 0 603583 0.040635 0 0.0411994 0 
74 633.929 1048.08 0 -1048.08 -46.3563 0 568213 0.0411994 0 0.0417638 0 
75 679.514 1105.56 0 -1105.56 -50.832 0 545139 0.0417638 0 0.0423281 0 
76 725.078 1163.91 0 -1163.91 -49.7346 0 525847 0.0423281 0 0.0428925 0 
77 772.739 1221.6 0 -1221.6 -43.9602 0 493795 0.0428925 0 0.0434569 0 
78 822.872 1270.26 0 -1270.26 -31.4209 0 432531 0.0434569 0 0.0440212 0 
79 872.993 1298.45 0 -1298.45 -10.2146 0 314929 0.0440212 0 0.0445856 0 
80 926.765 1300.09 0 -1300.09 4.57047 0 130066 0.0445856 0 0.04515 0 
81 333.956 1291.33 1291.33 0 0 -7.08403 60044.7 0.04515 0 0.04515 0.0002 
82 324.374 1287.81 1287.81 0 0 -7.17458 139796 0.04515 0.0002 0.04515 0.0004 
83 313.436 1278.47 1278.47 0 0 -11.4095 220171 0.04515 0.0004 0.04515 0.0006 
84 302.539 1264.09 1264.09 0 0 -19.0867 295582 0.04515 0.0006 0.04515 0.0008 
85 293.58 1258.51 1258.51 0 4.02295e-13 -24.74 373878 0.04515 0.0008 0.04515 0.001 
86 286.643 1256.96 1256.96 0 4.01848e-13 -36.0106 455150 0.04515 0.001 0.04515 0.0012 
87 279.335 1252.69 1252.69 0 0 -45.5742 535529 0.04515 0.0012 0.04515 0.0014 
88 273.759 1253.9 1253.9 0 0 -53.1808 616313 0.04515 0.0014 0.04515 0.0016 
89 269.003 1257.65 1257.65 0 4.02776e-13 -65.369 701517 0.04515 0.0016 0.04515 0.0018 
90 266.75 1274.12 1274.12 0 0 -75.6914 794907 0.04515 0.0018 0.04515 0.002 
91 265.66 1293.87 1293.87 0 0 -88.7937 885597 0.04515 0.002 0.04515 0.0022 
92 264.308 1313.55 1313.55 0 4.2079e-13 -95.7004 977298 0.04515 0.0022 0.04515 0.0024 
93 266.253 1344.95 1344.95 0 0 -102.82 1.09017e+06 0.04515 0.0024 0.04515 0.0026 
94 268.218 1378.07 1378.07 0 0 -109.156 1.19694e+06 0.04515 0.0026 0.04515 0.0028 
95 273.286 1427.88 1427.88 0 0 -116.423 1.32317e+06 0.04515 0.0028 0.04515 0.003 
96 277.794 1476.76 1476.76 0 0 -125.089 1.45116e+06 0.04515 0.003 0.04515 0.0032 
97 284.537 1533.07 1533.07 0 4.91235e-13 -124.993 1.58044e+06 0.04515 0.0032 0.04515 0.0034 
98 291.965 1599.15 1599.15 0 0 -122.936 1.73901e+06 0.04515 0.0034 0.04515 0.0036 
99 300.703 1673.24 1673.24 0 0 -126.039 1.90942e+06 0.04515 0.0036 0.04515 0.0038 
100 309.589 1748.55 1748.55 0 0 -125.295 2.09521e+06 0.04515 0.0038 0.04515 0.004 
101 321.419 1841.03 1841.03 0 5.89958e-13 -121.296 2.28721e+06 0.04515 0.004 0.04515 0.0042 
102 331.657 1929.83 1929.83 0 0 -108.153 2.5051e+06 0.04515 0.0042 0.04515 0.0044 
103 344.469 2031.33 2031.33 0 6.50421e-13 -95.765 2.7409e+06 0.04515 0.0044 0.04515 0.0046 
104 356.986 2138.25 2138.25 0 6.84856e-13 -76.6134 3.01135e+06 0.04515 0.0046 0.04515 0.0048 
105 367.72 2244.73 2244.73 0 0 -54.8318 3.29615e+06 0.04515 0.0048 0.04515 0.005 
106 379.948 2363.58 2363.58 0 7.57655e-13 -26.2981 3.63071e+06 0.04515 0.005 0.04515 0.0052 
107 391.158 2494.01 2494.01 0 0 18.4869 4.03116e+06 0.04515 0.0052 0.04515 0.0054 
108 397.567 2613.5 2613.5 0 8.36872e-13 80.9785 4.50542e+06 0.04515 0.0054 0.04515 0.0056 
109 395.841 2723.89 2723.89 0 8.72225e-13 173.996 5.09874e+06 0.04515 0.0056 0.04515 0.0058 
110 364.418 2790.52 2790.52 0 0 349.159 6.0763e+06 0.04515 0.0058 0.04515 0.006 
111 53.369 354.709 0 -354.709 268.481 0 1.17918e+06 0.04515 0.006 0.04535 0.006 
112 52.424 350.128 0 -350.128 261.666 0 1.12655e+06 0.04535 0.006 0.04555 0.006 
113 51.501 343.524 0 -343.524 256.495 0 1.08785e+06 0.04555 0.006 0.04575 0.006 
114 50.71 339.684 0 -339.684 250.48 0 1.05299e+06 0.04575 0.006 0.04595 0.006 
115 49.589 331.908 0 -331.908 240.838 0 1.00495e+06 0.04595 0.006 0.04615 0.006 
116 48.422 323.319 0 -323.319 233.929 0 968317 0.04615 0.006 0.04635 0.006 
117 48.074 319.999 0 -319.999 229.029 0 937868 0.04635 0.006 0.04655 0.006 
118 47.441 316.534 0 -316.534 226.942 0 917277 0.04655 0.006 0.04675 0.006 
119 46.194 307.673 0 -307.673 220.772 0 894897 0.04675 0.006 0.04695 0.006 
120 45.21 300.471 0 -300.471 216.324 0 860666 0.04695 0.006 0.04715 0.006 
121 43.715 289.984 0 -289.984 212.655 0 840319 0.04715 0.006 0.04735 0.006 
122 42.382 283.313 0 -283.313 210.98 0 819405 0.04735 0.006 0.04755 0.006 
123 41.377 277.768 0 -277.768 212.224 0 813117 0.04755 0.006 0.04775 0.006 
124 38.965 263.349 0 -263.349 210.397 0 787831 0.04775 0.006 0.04795 0.006 
125 35.421 243.974 0 -243.974 212.199 0 768159 0.04795 0.006 0.04815 0.006 
126 1.198 5.08047 -5.08047 0 0 -0.0366446 7171.06 0.04815 0.006 0.04815 0.0058 
127 1.173 4.94086 -4.94086 0 -1.58646e-15 0.355131 6618.5 0.04815 0.0058 0.04815 0.0056 
128 1.305 5.61441 -5.61441 0 -1.79759e-15 0.737828 6789.87 0.04815 0.0056 0.04815 0.0054 
129 1.446 6.24734 -6.24734 0 0 0.919631 7139.34 0.04815 0.0054 0.04815 0.0052 
130 1.422 6.24828 -6.24828 0 -2.00587e-15 0.877443 6717.63 0.04815 0.0052 0.04815 0.005 
131 1.441 6.30912 -6.30912 0 0 0.674234 6891.68 0.04815 0.005 0.04815 0.0048 
132 1.554 7.01525 -7.01525 0 -2.21066e-15 0.943739 7289.25 0.04815 0.0048 0.04815 0.0046 
133 1.715 7.56618 -7.56618 0 -2.43107e-15 1.15849 7636.17 0.04815 0.0046 0.04815 0.0044 
134 1.772 8.02708 -8.02708 0 0 1.21693 7199.72 0.04815 0.0044 0.04815 0.0042 
135 1.813 8.41574 -8.41574 0 -2.70639e-15 0.991745 7821.24 0.04815 0.0042 0.04815 0.004 
136 1.994 8.79093 -8.79093 0 0 0.979646 7543.74 0.04815 0.004 0.04815 0.0038 
137 2.151 9.70961 -9.70961 0 0 1.2617 8496.99 0.04815 0.0038 0.04815 0.0036 
138 2.206 10.0502 -10.0502 0 0 1.09412 8352.77 0.04815 0.0036 0.04815 0.0034 
139 2.231 10.168 -10.168 0 -3.24987e-15 0.991659 8600 0.04815 0.0034 0.04815 0.0032 
140 2.446 11.3384 -11.3384 0 0 1.07739 8407.03 0.04815 0.0032 0.04815 0.003 
141 2.462 11.2478 -11.2478 0 0 0.943023 8304.94 0.04815 0.003 0.04815 0.0028 
142 2.417 11.0518 -11.0518 0 0 0.810547 8304.4 0.04815 0.0028 0.04815 0.0026 
143 2.61 11.8379 -11.8379 0 0 0.631619 8573.89 0.04815 0.0026 0.04815 0.0024 
144 2.676 12.1841 -12.1841 0 -3.90586e-15 0.445198 8649.91 0.04815 0.0024 0.04815 0.0022 
145 2.837 12.8592 -12.8592 0 0 0.628921 8598.6 0.04815 0.0022 0.04815 0.002 
146 2.773 12.6008 -12.6008 0 0 0.469125 8640.37 0.04815 0.002 0.04815 0.0018 
147 2.916 13.1489 -13.1489 0 -4.21488e-15 0.485315 8063.44 0.04815 0.0018 0.04815 0.0016 
148 2.778 12.7609 -12.7609 0 0 0.124464 7757.25 0.04815 0.0016 0.04815 0.0014 
149 2.994 13.6302 -13.6302 0 0 0.0544708 8745.96 0.04815 0.0014 0.04815 0.0012 
150 3 13.4369 -13.4369 0 -4.30479e-15 -0.0146001 7493.09 0.04815 0.0012 0.04815 0.001 
151 3.025 13.5841 -13.5841 0 -4.3361e-15 -0.670665 8198.23 0.04815 0.001 0.04815 0.0008 
152 3.04 13.4015 -13.4015 0 0 -0.588388 7649.72 0.04815 0.0008 0.04815 0.0006 
153 2.999 13.4195 -13.4195 0 0 -0.72957 7182.82 0.04815 0.0006 0.04815 0.0004 
154 3.144 13.7362 -13.7362 0 0 -0.939245 6848.1 0.04815 0.0004 0.04815 0.0002 
155 3.124 13.4808 -13.4808 0 0 -0.768024 6698.06 0.04815 0.0002 0.04815 0 
156 6.064 13.8298 0 -13.8298 -1.09409 0 9513.65 0.04815 0 0.04855 0 
157 6.073 14.429 0 -14.429 -1.04957 0 11294.4 0.04855 0 0.04895 0 
158 6.2 15.6445 0 -15.6445 -1.29393 0 14832.6 0.04895 0 0.04935 0 
159 6.686 17.9905 0 -17.9905 -1.0881 0 19267.1 0.04935 0 0.04975 0 
160 6.92 19.6664 0 -19.6664 -0.800631 0 22783.8 0.04975 0 0.05015 0 
161 7.515 22.4397 0 -22.4397 -0.578257 0 28008.6 0.05015 0 0.05055 0 
162 8.113 25.0529 0 -25.0529 0.0244472 0 34160.7 0.05055 0 0.05095 0 
163 8.836 28.0742 0 -28.0742 0.798156 0 40145.9 0.05095 0 0.05135 0 
164 9.623 31.3991 0 -31.3991 2.10984 0 47096.8 0.05135 0 0.05175 0 
165 10.617 35.8733 0 -35.8733 3.38689 0 56844.5 0.05175 0 0.05215 0 
166 11.714 40.233 0 -40.233 4.81849 0 64837.2 0.05215 0 0.05255 0 
167 12.505 43.516 0 -43.516 6.62033 0 73247.9 0.05255 0 0.05295 0 
168 13.54 47.5944 0 -47.5944 8.84781 0 82846.2 0.05295 0 0.05335 0 
169 14.556 51.8508 0 -51.8508 11.026 0 92315.7 0.05335 0 0.05375 0 
170 15.655 56.2389 0 -56.2389 13.3081 0 104301 0.05375 0 0.05415 0 
171 16.656 59.9438 0 -59.9438 15.7564 0 113189 0.05415 0 0.05455 0 
172 17.74 64.1174 0 -64.1174 18.5697 0 124750 0.05455 0 0.05495 0 
173 18.901 68.128 0 -68.128 21.3433 0 135309 0.05495 0 0.05535 0 
174 19.892 71.9228 0 -71.9228 23.7304 0 144293 0.05535 0 0.05575 0 
175 20.943 75.7213 0 -75.7213 26.2907 0 154282 0.05575 0 0.05615 0 
176 21.992 79.3011 0 -79.3011 28.9382 0 164406 0.05615 0 0.05655 0 
177 22.984 82.753 0 -82.753 31.373 0 172920 0.05655 0 0.05695 0 
178 24.043 85.9089 0 -85.9089 33.6411 0 182239 0.05695 0 0.05735 0 
179 24.686 87.9768 0 -87.9768 35.887 0 188910 0.05735 0 0.05775 0 
180 25.767 91.7332 0 -91.7332 38.1237 0 197820 0.05775 0 0.05815 0 
181 25.973 92.0483 0 -92.0483 38.9737 0 199384 0.05815 0 0.05855 0 
182 26.882 94.7828 0 -94.7828 41.1183 0 206145 0.05855 0 0.05895 0 
183 27.738 97.7697 0 -97.7697 43.573 0 214055 0.05895 0 0.05935 0 
184 28.248 99.3703 0 -99.3703 44.8959 0 220426 0.05935 0 0.05975 0 
185 29.298 102.965 0 -102.965 47.7875 0 230038 0.05975 0 0.06015 0 
186 29.847 104.14 0 -104.14 48.6066 0 232277 0.06015 0 0.06055 0 
187 30.478 106.451 0 -106.451 50.5169 0 237815 0.06055 0 0.06095 0 
188 30.971 107.568 0 -107.568 51.2166 0 240965 0.06095 0 0.06135 0 
189 31.549 108.804 0 -108.804 53.2456 0 246287 0.06135 0 0.06175 0 
190 31.999 110.736 0 -110.736 53.9999 0 250574 0.06175 0 0.06215 0 
191 32.188 110.856 0 -110.856 54.4759 0 250095 0.06215 0 0.06255 0 
192 32.809 112.528 0 -112.528 55.9532 0 255304 0.06255 0 0.06295 0 
193 32.816 111.797 0 -111.797 56.852 0 254359 0.06295 0 0.06335 0 
194 32.99 112.493 0 -112.493 56.7746 0 254973 0.06335 0 0.06375 0 
195 34.289 116.995 0 -116.995 59.1175 0 265201 0.06375 0 0.06415 0 
196 34.288 115.929 0 -115.929 59.6186 0 264912 0.06415 0 0.06455 0 
197 34.581 117.515 0 -117.515 60.5238 0 271044 0.06455 0 0.06495 0 
198 34.732 117.303 0 -117.303 59.5751 0 265125 0.06495 0 0.06535 0 
199 35.221 119.411 0 -119.411 61.9618 0 271758 0.06535 0 0.06575 0 
200 35.504 119.732 0 -119.732 62.7196 0 273049 0.06575 0 0.06615 0 
201 35.855 120.827 0 -120.827 62.992 0 275233 0.06615 0 0.06655 0 
202 35.83 120.775 0 -120.775 63.2268 0 273679 0.06655 0 0.06695 0 
203 35.757 120.323 0 -120.323 63.7111 0 274906 0.06695 0 0.06735 0 
204 36.287 121.738 0 -121.738 64.6273 0 278440 0.06735 0 0.06775 0 
205 36.297 121.748 0 -121.748 64.098 0 277070 0.06775 0 0.06815 0 
206 36.874 122.691 0 -122.691 65.2313 0 280512 0.06815 0 0.06855 0 
207 36.869 123.757 0 -123.757 65.8163 0 282456 0.06855 0 0.06895 0 
208 37.077 123.52 0 -123.52 65.1157 0 277751 0.06895 0 0.06935 0 
209 37.157 123.887 0 -123.887 66.2007 0 282686 0.06935 0 0.06975 0 
210 37.117 123.543 0 -123.543 66.3475 0 279741 0.06975 0 0.07015 0 
211 37.278 124.089 0 -124.089 66.61 0 281237 0.07015 0 0.07055 0 
212 37.58 125.192 0 -125.192 66.5382 0 282284 0.07055 0 0.07095 0 
213 37.806 125.301 0 -125.301 66.9725 0 281719 0.07095 0 0.07135 0 
214 37.652 124.94 0 -124.94 67.019 0 282268 0.07135 0 0.07175 0 
215 38.088 126.183 0 -126.183 67.5596 0 283894 0.07175 0 0.07215 0 
216 38.107 125.915 0 -125.915 67.1474 0 280861 0.07215 0 0.07255 0 
217 38.049 126.159 0 -126.159 67.7719 0 284569 0.07255 0 0.07295 0 
218 38.006 125.687 0 -125.687 67.6982 0 282498 0.07295 0 0.07335 0 
219 38.065 125.505 0 -125.505 67.5205 0 281400 0.07335 0 0.07375 0 
220 38.22 126 0 -126 67.8291 0 280932 0.07375 0 0.07415 0 
221 38.195 126.18 0 -126.18 68.0162 0 281587 0.07415 0 0.07455 0 
222 37.866 124.688 0 -124.688 66.7854 0 278587 0.07455 0 0.07495 0 
223 38.105 125.089 0 -125.089 67.3542 0 278097 0.07495 0 0.07535 0 
224 38.531 125.713 0 -125.713 67.6214 0 277026 0.07535 0 0.07575 0 
225 38.301 125.586 0 -125.586 67.1065 0 279940 0.07575 0 0.07615 0 
226 38.676 126.108 0 -126.108 67.9123 0 279914 0.07615 0 0.07655 0 
227 38.508 125.697 0 -125.697 67.6262 0 278026 0.07655 0 0.07695 0 
228 38.587 125.808 0 -125.808 67.9178 0 279145 0.07695 0 0.07735 0 
229 38.358 125.684 0 -125.684 67.9715 0 280492 0.07735 0 0.07775 0 
230 38.282 125.309 0 -125.309 67.384 0 276976 0.07775 0 0.07815 0 
231 38.566 125.663 0 -125.663 66.9801 0 276138 0.07815 0 0.07855 0 
232 38.779 126.242 0 -126.242 68.5671 0 279420 0.07855 0 0.07895 0 
233 38.823 126.12 0 -126.12 67.5171 0 275799 0.07895 0 0.07935 0 
234 38.603 125.647 0 -125.647 68.005 0 277650 0.07935 0 0.07975 0 
235 38.546 124.864 0 -124.864 67.0585 0 273059 0.07975 0 0.08015 0 
236 38.504 124.635 0 -124.635 66.4414 0 270618 0.08015 0 0.08055 0 
237 38.597 124.872 0 -124.872 66.8247 0 270869 0.08055 0 0.08095 0 
238 38.115 123.636 0 -123.636 66.9482 0 272049 0.08095 0 0.08135 0 
239 38.412 124.995 0 -124.995 67.0354 0 271989 0.08135 0 0.08175 0 
240 38.529 124.687 0 -124.687 67.0537 0 270235 0.08175 0 0.08215 0 
